SPECGRID
40 120 20 /

INCLUDE
SAIGUP.COORD /
INCLUDE
SAIGUP_A1.ZCORN /
INCLUDE
SAIGUP.ACTNUM /

INCLUDE
028.PERMX /
INCLUDE
028.PERMY /
INCLUDE
028.PERMZ /
INCLUDE
028.MULTX /
INCLUDE
028.MULTY /
INCLUDE
028.MULTZ /
INCLUDE
028.PORO /
INCLUDE
028.NTG /
