-- Exported by : MUFITS 2015.C09   www.mufits.imec.msu.ru
-- Date        : 23/05/2015   12:13:17
 
MAPUNITS
 'METRES' /
 
MAPAXES
 407667.000000 6175000.000000
 407667.000000 6174000.000000
 408667.000000 6174000.000000 /
 
GRIDUNIT
 'METRES' 'MAP' /
 
SPECGRID
 13 20 38 1 F /
 
INCLUDE
OW2P-RT.PERMX /

INCLUDE
OW2P-RT.PORO /
 
COORD
  416727.757047  6174139.397923  2346.810000  416727.756126  6174139.397533  2434.636000
  416818.359673  6174177.481529  2339.329000  416818.359673  6174177.481529  2429.896000
  416909.628426  6174215.941226  2325.661000  416909.628426  6174215.941226  2415.285000
  417004.247343  6174256.327630  2326.390000  417004.245112  6174256.327773  2416.672000
  417096.351600  6174295.268686  2327.357000  417096.350290  6174295.269217  2418.873000
  417188.457310  6174334.211441  2327.657000  417188.454547  6174334.210273  2420.364000
  417280.563799  6174373.152354  2327.188000  417280.560647  6174373.152107  2420.189000
  417372.669899  6174412.094189  2327.325000  417372.665825  6174412.093552  2419.376000
  417464.775077  6174451.035633  2328.444000  417464.771924  6174451.035386  2418.704000
  417556.880255  6174489.977078  2330.193000  417556.878024  6174489.977220  2417.677000
  417648.985434  6174528.918523  2331.070000  417648.983591  6174528.917744  2415.979000
  417741.090612  6174567.859968  2331.458000  417741.088770  6174567.859189  2414.248000
  417833.195401  6174606.802334  2331.100000  417833.195790  6174606.801413  2412.912000
  417925.301890  6174645.743247  2330.080000  417925.300969  6174645.742857  2411.938000
  416766.871800  6174047.396418  2344.322000  416766.870879  6174047.396028  2432.763000
  416859.069938  6174086.390194  2337.719000  416859.069549  6174086.391115  2428.314000
  416951.287313  6174125.397531  2325.591000  416951.287313  6174125.397531  2416.745000
  417043.188256  6174164.221142  2325.366000  417043.187867  6174164.222063  2416.742000
  417135.292514  6174203.162197  2326.595000  417135.292514  6174203.162197  2418.703000
  417227.399534  6174242.104421  2327.180000  417227.396381  6174242.104173  2420.599000
  417319.505633  6174281.046255  2327.830000  417319.502481  6174281.046008  2421.136000
  417411.611733  6174319.988089  2328.277000  417411.608580  6174319.987842  2420.162000
  417503.715990  6174358.929145  2328.778000  417503.712837  6174358.928897  2418.316000
  417595.821168  6174397.870589  2330.000000  417595.819326  6174397.869810  2416.408000
  417687.926878  6174436.813345  2331.503000  417687.926347  6174436.812034  2414.832000
  417780.031525  6174475.753479  2332.252000  417780.029683  6174475.752700  2413.626000
  417872.137624  6174514.695313  2331.979000  417872.136703  6174514.694924  2412.670000
  417964.243192  6174553.635837  2330.830000  417964.241882  6174553.636369  2411.814000
  416806.214902  6173955.771569  2339.891000  416806.215823  6173955.771958  2428.975000
  416900.700729  6173995.820506  2334.083000  416900.700729  6173995.820506  2425.350000
  416992.034068  6174034.330309  2324.362000  416992.034068  6174034.330309  2416.791000
  417082.260319  6174072.189645  2323.652000  417082.259398  6174072.189255  2416.898000
  417174.235269  6174111.056487  2325.385000  417174.233958  6174111.057019  2419.078000
  417266.341368  6174149.998321  2326.788000  417266.338216  6174149.998074  2421.335000
  417358.446547  6174188.939766  2328.085000  417358.444704  6174188.938987  2422.208000
  417450.552646  6174227.881600  2329.032000  417450.550804  6174227.880821  2421.101000
  417542.657824  6174266.823045  2329.446000  417542.655061  6174266.821877  2418.495000
  417634.763003  6174305.764490  2330.021000  417634.763003  6174305.764490  2415.880000
  417726.869102  6174344.706324  2331.748000  417726.867260  6174344.705545  2414.208000
  417818.973359  6174383.647380  2333.357000  417818.972438  6174383.646990  2413.390000
  417911.079459  6174422.589214  2333.648000  417911.078538  6174422.588824  2412.935000
  418003.185558  6174461.531048  2332.406000  418003.184637  6174461.530659  2412.293000
  416843.228383  6173861.793784  2333.219000  416843.227993  6173861.794705  2422.041000
  416944.637643  6173906.665542  2328.074000  416944.636191  6173906.663842  2419.786000
  417007.652563  6173928.745693  2322.850000  417007.652563  6173928.745693  2417.690000
  417120.857842  6173979.891288  2321.232000  417120.856000  6173979.890509  2415.906000
  417213.178024  6174018.950777  2323.352000  417213.176182  6174018.949998  2418.603000
  417305.283202  6174057.892222  2325.909000  417305.280439  6174057.891054  2421.560000
  417397.388381  6174096.833667  2328.021000  417397.388381  6174096.833667  2423.052000
  417489.495401  6174135.775890  2329.970000  417489.492638  6174135.774722  2422.487000
  417581.600580  6174174.717335  2331.484000  417581.597816  6174174.716167  2420.237000
  417673.704837  6174213.658391  2332.227000  417673.702995  6174213.657612  2417.413000
  417765.810936  6174252.600225  2333.281000  417765.809484  6174252.598525  2415.182000
  417857.915194  6174291.541280  2335.109000  417857.914662  6174291.539970  2414.121000
  417950.021293  6174330.483114  2336.261000  417950.021682  6174330.482193  2414.052000
  418042.126861  6174369.423638  2335.341000  418042.126471  6174369.424559  2413.960000
  416881.208436  6173768.624199  2325.722000  416881.207125  6173768.624731  2413.865000
  416975.599607  6173809.965276  2321.998000  416975.599076  6173809.963966  2413.180000
  417057.641729  6173842.866145  2318.551000  417057.639887  6173842.865366  2411.799000
  417160.394702  6173888.121446  2317.383000  417160.392860  6173888.120667  2412.632000
  417252.118937  6173926.844288  2319.875000  417252.117095  6173926.843509  2416.019000
  417344.225037  6173965.786122  2323.535000  417344.223195  6173965.785344  2420.049000
  417436.331136  6174004.727957  2326.903000  417436.329294  6174004.727178  2422.791000
  417528.436704  6174043.668480  2330.282000  417528.434862  6174043.667702  2423.610000
  417620.541493  6174082.610846  2333.499000  417620.539651  6174082.610067  2422.636000
  417712.646282  6174121.553212  2335.638000  417712.645750  6174121.551902  2420.287000
  417804.751849  6174160.493736  2336.488000  417804.750928  6174160.493347  2417.502000
  417896.857559  6174199.436491  2336.956000  417896.857028  6174199.435181  2415.671000
  417988.962738  6174238.377936  2338.317000  417988.963127  6174238.377015  2415.693000
  418081.068306  6174277.318460  2338.380000  418081.068695  6174277.317539  2416.377000
  416923.257430  6173679.581941  2318.624000  416923.257962  6173679.583252  2406.146000
  417014.792526  6173717.917562  2315.769000  417014.790683  6173717.916783  2406.309000
  417106.677638  6173756.752936  2312.872000  417106.677106  6173756.751626  2405.866000
  417199.062795  6173795.861611  2312.415000  417199.061485  6173795.862143  2407.293000
  417291.060772  6173834.738189  2315.432000  417291.058929  6173834.737410  2411.470000
  417383.166871  6173873.680023  2319.914000  417383.164108  6173873.678855  2416.683000
  417475.271270  6173912.623310  2324.342000  417475.272049  6173912.621468  2421.003000
  417567.377228  6173951.562913  2328.923000  417567.376307  6173951.562523  2423.610000
  417659.482406  6173990.504357  2333.545000  417659.481485  6173990.503968  2424.233000
  417751.588505  6174029.446192  2336.975000  417751.588505  6174029.446192  2422.843000
  417843.693294  6174068.388558  2337.396000  417843.693684  6174068.387637  2420.007000
  417935.798473  6174107.330002  2335.194000  417935.798862  6174107.329081  2417.472000
  418027.904572  6174146.271837  2337.684000  418027.904961  6174146.270916  2417.271000
  418120.010140  6174185.212360  2338.883000  418120.010140  6174185.212360  2418.307000
  416961.580582  6173586.866842  2313.250000  416961.579661  6173586.866452  2399.520000
  417053.687602  6173625.809065  2310.599000  417053.685760  6173625.808287  2399.753000
  417145.792781  6173664.750510  2307.831000  417145.791860  6173664.750121  2399.420000
  417237.897959  6173703.691955  2307.707000  417237.896117  6173703.691176  2401.256000
  417330.002216  6173742.633010  2311.113000  417330.001295  6173742.632621  2406.093000
  417422.108316  6173781.574845  2315.956000  417422.106474  6173781.574066  2412.305000
  417514.213494  6173820.516290  2320.974000  417514.213494  6173820.516290  2418.041000
  417606.318672  6173859.457734  2326.140000  417606.317751  6173859.457345  2422.256000
  417698.423851  6173898.399179  2331.174000  417698.423851  6173898.399179  2424.257000
  417790.529950  6173937.341013  2335.545000  417790.530340  6173937.340092  2423.887000
  417882.634207  6173976.282069  2336.865000  417882.635518  6173976.281537  2421.779000
  417974.740307  6174015.223903  2335.064000  417974.740696  6174015.222982  2419.497000
  418066.845485  6174054.165348  2337.920000  418066.846406  6174054.165737  2418.823000
  418158.951585  6174093.107182  2338.941000  418158.951585  6174093.107182  2419.403000
  417000.523337  6173494.761132  2309.232000  417000.521495  6173494.760353  2394.254000
  417092.629437  6173533.702966  2306.762000  417092.626673  6173533.701798  2394.060000
  417184.734615  6173572.644411  2304.336000  417184.733694  6173572.644021  2393.739000
  417276.840714  6173611.586245  2304.579000  417276.838872  6173611.585466  2395.943000
  417368.943661  6173650.527832  2307.977000  417368.943129  6173650.526522  2401.239000
  417461.048839  6173689.469277  2312.798000  417461.049229  6173689.468356  2408.080000
  417553.154939  6173728.411111  2318.096000  417553.154797  6173728.408880  2414.655000
  417645.260507  6173767.351635  2323.191000  417645.260896  6173767.350714  2419.712000
  417737.365685  6173806.293080  2327.979000  417737.366074  6173806.292159  2422.504000
  417829.471395  6173845.235835  2332.914000  417829.472174  6173845.233993  2422.923000
  417921.576963  6173884.176359  2336.068000  417921.577352  6173884.175438  2421.727000
  418013.682141  6173923.117804  2337.295000  418013.682530  6173923.116883  2420.128000
  418105.788240  6173962.059638  2337.876000  418105.788630  6173962.058717  2419.170000
  418197.893419  6174001.001083  2337.283000  418197.893808  6174001.000162  2419.195000
  417039.466624  6173402.656732  2305.395000  417039.462940  6173402.655175  2389.486000
  417131.570881  6173441.597788  2303.668000  417131.569039  6173441.597009  2389.063000
  417223.676060  6173480.539233  2302.652000  417223.673297  6173480.538064  2389.271000
  417315.782159  6173519.481067  2303.718000  417315.778475  6173519.479509  2392.133000
  417407.885495  6173558.421733  2306.966000  417407.884574  6173558.421343  2397.834000
  417499.991595  6173597.363567  2311.453000  417499.990674  6173597.363178  2404.841000
  417592.096773  6173636.305012  2316.243000  417592.096241  6173636.303701  2411.362000
  417684.201951  6173675.246457  2320.555000  417684.202341  6173675.245536  2416.194000
  417776.308051  6173714.188291  2324.554000  417776.308830  6173714.186449  2418.907000
  417868.413229  6173753.129736  2329.184000  417868.414008  6173753.127894  2419.715000
  417960.518939  6173792.072491  2333.157000  417960.519329  6173792.071570  2419.146000
  418052.623586  6173831.012625  2334.958000  418052.624896  6173831.012094  2417.959000
  418144.729685  6173869.954459  2334.685000  418144.730464  6173869.952617  2417.021000
  418236.834864  6173908.895904  2333.324000  418236.836564  6173908.894452  2416.904000
  417078.408458  6173310.550633  2303.055000  417078.403853  6173310.548686  2385.989000
  417170.513637  6173349.492078  2302.292000  417170.509031  6173349.490131  2385.574000
  417262.618815  6173388.433523  2302.680000  417262.615131  6173388.431965  2386.448000
  417354.723993  6173427.374967  2304.609000  417354.721230  6173427.373799  2390.014000
  417446.828251  6173466.316023  2307.766000  417446.825877  6173466.313933  2396.105000
  417538.933429  6173505.257468  2311.708000  417538.931976  6173505.255768  2402.862000
  417631.038607  6173544.198912  2315.349000  417631.039386  6173544.197070  2408.514000
  417723.144317  6173583.141668  2318.666000  417723.144175  6173583.139436  2412.274000
  417815.249885  6173622.082191  2322.033000  417815.250664  6173622.080349  2414.200000
  417907.355063  6173661.023636  2326.008000  417907.355842  6173661.021794  2414.710000
  417999.461163  6173699.965470  2329.808000  417999.461942  6173699.963628  2414.202000
  418091.565420  6173738.906526  2331.375000  418091.567120  6173738.905073  2413.213000
  418183.671520  6173777.848360  2330.883000  418183.671909  6173777.847439  2412.671000
  418275.776698  6173816.789805  2329.517000  418275.778008  6173816.789273  2412.948000
  417117.351214  6173218.444923  2302.917000  417117.345298  6173218.443507  2384.784000
  417209.456392  6173257.386368  2302.522000  417209.449555  6173257.384563  2384.392000
  417301.561570  6173296.327813  2303.607000  417301.556433  6173296.324555  2385.674000
  417393.665828  6173335.268868  2306.160000  417393.662533  6173335.266389  2389.724000
  417485.769695  6173374.210844  2309.434000  417485.767322  6173374.208755  2395.991000
  417577.874874  6173413.152289  2312.704000  417577.872889  6173413.149279  2402.181000
  417669.980052  6173452.093734  2315.320000  417669.981220  6173452.090971  2406.601000
  417762.085230  6173491.035179  2317.672000  417762.086788  6173491.031495  2408.943000
  417854.190409  6173529.976624  2320.228000  417854.192888  6173529.973329  2409.615000
  417946.296508  6173568.918458  2323.077000  417946.297676  6173568.915695  2409.102000
  418038.402076  6173607.858982  2326.093000  418038.405086  6173607.856997  2407.846000
  418130.506865  6173646.801348  2327.739000  418130.508565  6173646.799895  2406.797000
  418222.612964  6173685.743182  2326.874000  418222.614133  6173685.740419  2407.125000
  418314.718532  6173724.683706  2325.723000  418314.720232  6173724.682253  2408.376000
  417156.294501  6173126.340523  2303.590000  417156.285290  6173126.336629  2385.080000
  417248.398368  6173165.282500  2303.465000  417248.391389  6173165.278463  2384.938000
  417340.502626  6173204.223555  2304.821000  417340.497878  6173204.219377  2386.731000
  417432.606883  6173243.164611  2307.849000  417432.603057  6173243.160821  2391.215000
  417524.711140  6173282.105666  2311.586000  417524.708624  6173282.101345  2397.305000
  417616.816319  6173321.047111  2314.214000  417616.814724  6173321.043179  2402.731000
  417708.921497  6173359.988556  2315.930000  417708.921744  6173359.985403  2405.910000
  417801.026675  6173398.930001  2317.568000  417801.027844  6173398.927237  2406.811000
  417893.130933  6173437.871056  2319.227000  417893.133022  6173437.868682  2406.173000
  417985.237953  6173476.813280  2320.796000  417985.240042  6173476.810906  2404.512000
  418077.342210  6173515.754335  2322.336000  418077.346142  6173515.752740  2402.298000
  418169.448310  6173554.696169  2323.151000  418169.451320  6173554.694185  2400.911000
  418261.554409  6173593.638003  2321.927000  418261.555577  6173593.635240  2401.939000
  418353.659587  6173632.579448  2321.416000  418353.661287  6173632.577996  2404.102000
  417195.236335  6173034.234424  2303.559000  417195.224893  6173034.230672  2385.283000
  417287.340592  6173073.175479  2303.989000  417287.332160  6173073.169743  2385.615000
  417379.445381  6173112.117845  2306.445000  417379.439181  6173112.111967  2388.315000
  417471.549249  6173151.059822  2310.128000  417471.544891  6173151.054722  2393.367000
  417563.652585  6173190.000488  2313.870000  417563.650848  6173189.994325  2399.013000
  417655.757232  6173228.940622  2315.946000  417655.756947  6173228.936159  2403.462000
  417747.862942  6173267.883377  2316.859000  417747.863578  6173267.879304  2405.547000
  417839.968120  6173306.824822  2317.933000  417839.970457  6173306.819296  2405.339000
  417932.072377  6173345.765878  2318.758000  417932.076167  6173345.762051  2403.862000
  418024.178477  6173384.707712  2319.142000  418024.181345  6173384.703496  2401.629000
  418116.284576  6173423.649546  2318.941000  418116.288365  6173423.645720  2399.176000
  418208.389755  6173462.590991  2318.004000  418208.392233  6173462.587696  2397.705000
  418300.495712  6173501.530594  2316.995000  418300.498722  6173501.528609  2398.359000
  418392.600501  6173540.472959  2316.853000  418392.603900  6173540.470054  2400.457000
  417234.178701  6172942.129635  2302.759000  417234.167506  6172942.122731  2384.274000
  417326.281647  6172981.071222  2303.825000  417326.272684  6172981.064175  2385.048000
  417418.385905  6173020.012278  2307.745000  417418.380094  6173020.005478  2388.598000
  417510.490162  6173058.953333  2312.149000  417510.486193  6173058.947312  2394.433000
  417602.594419  6173097.894388  2315.442000  417602.592682  6173097.888225  2399.562000
  417694.699598  6173136.835833  2317.043000  417694.699171  6173136.829139  2402.663000
  417786.804387  6173175.778199  2317.357000  417786.806723  6173175.772673  2403.628000
  417878.909033  6173214.718333  2317.720000  417878.913212  6173214.713586  2403.002000
  417971.014212  6173253.659778  2318.097000  417971.019701  6173253.654499  2401.502000
  418063.120311  6173292.601612  2317.943000  418063.124879  6173292.595944  2399.486000
  418155.225100  6173331.543978  2316.850000  418155.231510  6173331.539089  2397.330000
  418247.331589  6173370.484891  2314.970000  418247.335378  6173370.481065  2395.740000
  418339.437299  6173409.427647  2313.318000  418339.440946  6173409.421589  2395.518000
  418431.541945  6173448.367781  2312.741000  418431.546124  6173448.363034  2396.846000
  417273.119224  6172850.024067  2300.658000  417273.110261  6172850.017021  2381.472000
  417365.221640  6172888.964344  2303.251000  417365.215829  6172888.957544  2382.804000
  417457.326429  6172927.906710  2307.981000  417457.323239  6172927.898847  2386.485000
  417549.431996  6172966.847234  2312.861000  417549.430649  6172966.840150  2392.863000
  417641.534554  6173005.789742  2315.978000  417641.535827  6173005.781594  2397.957000
  417733.640121  6173044.730265  2316.669000  417733.643237  6173044.722897  2399.848000
  417825.746221  6173083.672100  2315.844000  417825.749726  6173083.663810  2399.715000
  417917.850089  6173122.614076  2315.510000  417917.855046  6173122.607486  2398.892000
  418009.955267  6173161.555521  2315.976000  418009.961146  6173161.549321  2397.975000
  418102.061756  6173200.496434  2316.322000  418102.066324  6173200.490765  2396.795000
  418194.166545  6173239.438800  2315.271000  418194.173344  6173239.432989  2395.179000
  418286.271191  6173278.378934  2312.739000  418286.277602  6173278.374045  2393.331000
  418378.378212  6173317.321158  2310.188000  418378.383701  6173317.315879  2392.024000
  418470.483780  6173356.261682  2308.457000  418470.487569  6173356.257855  2392.015000
  417312.058295  6172757.916800  2298.825000  417312.054327  6172757.910779  2377.515000
  417404.162163  6172796.858776  2302.059000  417404.160426  6172796.852613  2379.542000
  417496.266421  6172835.799832  2306.424000  417496.266915  6172835.793526  2382.157000
  417588.371599  6172874.741276  2311.383000  417588.373404  6172874.734440  2387.513000
  417680.475856  6172913.682332  2315.069000  417680.479361  6172913.674042  2393.415000
  417772.581566  6172952.625087  2314.790000  417772.586381  6172952.616266  2395.266000
  417864.686745  6172991.566532  2312.817000  417864.691170  6172991.558632  2394.531000
  417956.791923  6173030.507977  2311.928000  417956.799501  6173030.500324  2393.732000
  418048.895791  6173069.449953  2312.497000  418048.903369  6173069.442300  2393.573000
  418141.002280  6173108.390866  2313.435000  418141.009469  6173108.384134  2393.413000
  418233.107458  6173147.332311  2312.833000  418233.115568  6173147.325969  2392.374000
  418325.212636  6173186.273756  2310.266000  418325.219436  6173186.267945  2390.221000
  418417.318736  6173225.215590  2307.027000  418417.325535  6173225.209779  2387.718000
  418509.425224  6173264.156503  2304.010000  418509.429403  6173264.151756  2386.009000
  417350.997898  6172665.810843  2297.281000  417350.998924  6172665.805848  2373.789000
  417443.100845  6172704.752430  2300.137000  417443.103571  6172704.745982  2376.291000
  417535.206944  6172743.694264  2303.509000  417535.210591  6172743.688206  2378.155000
  417627.312123  6172782.635709  2307.705000  417627.317080  6172782.629119  2381.449000
  417719.416380  6172821.576764  2310.858000  417719.422506  6172821.567411  2386.395000
  417811.521169  6172860.519130  2310.928000  417811.529916  6172860.508714  2389.515000
  417903.626879  6172899.461885  2309.531000  417903.636936  6172899.450937  2389.273000
  417995.731136  6172938.402941  2308.722000  417995.741725  6172938.393303  2389.059000
  418087.837625  6172977.343854  2309.143000  418087.847824  6172977.335138  2389.573000
  418179.942803  6173016.285299  2310.060000  418179.953003  6173016.276582  2390.072000
  418272.049434  6173055.228443  2309.769000  418272.057792  6173055.218948  2389.451000
  418364.154081  6173094.168578  2307.660000  418364.162970  6173094.160393  2387.153000
  418456.260570  6173133.109491  2304.276000  418456.266838  6173133.102369  2383.771000
  418548.367590  6173172.051714  2300.801000  418548.372158  6173172.046046  2380.659000
  417389.937254  6172573.708038  2295.016000  417389.941006  6172573.696596  2370.258000
  417482.042432  6172612.649483  2297.436000  417482.046716  6172612.639351  2372.449000
  417574.147079  6172651.589617  2300.268000  417574.153204  6172651.580264  2374.586000
  417666.251868  6172690.531983  2304.045000  417666.260225  6172690.522488  2376.964000
  417758.355736  6172729.473959  2306.868000  417758.365793  6172729.463012  2380.464000
  417850.461835  6172768.415794  2307.592000  417850.473203  6172768.404314  2383.518000
  417942.566092  6172807.356849  2307.198000  417942.579160  6172807.343917  2384.697000
  418034.671271  6172846.298294  2306.733000  418034.685791  6172846.287062  2385.365000
  418126.776449  6172885.239739  2306.820000  418126.790969  6172885.228506  2386.434000
  418218.882548  6172924.181573  2307.178000  418218.897069  6172924.170341  2387.229000
  418310.989958  6172963.122875  2306.781000  418311.001857  6172963.112707  2386.834000
  418403.095526  6173002.063399  2304.932000  418403.105194  6173002.053373  2384.622000
  418495.201236  6173041.006155  2301.968000  418495.210514  6173040.997049  2381.010000
  418587.307725  6173079.947068  2298.527000  418587.313603  6173079.940867  2377.256000
  417428.881357  6172481.609412  2293.161000  417428.879934  6172481.587097  2367.642000
  417520.984551  6172520.547846  2294.933000  417520.986176  6172520.531162  2369.344000
  417613.088666  6172559.486670  2297.714000  417613.094118  6172559.473775  2371.511000
  417705.192923  6172598.427726  2301.804000  417705.203370  6172598.415857  2374.538000
  417797.296259  6172637.368392  2304.647000  417797.309327  6172637.355460  2376.873000
  417889.402359  6172676.310226  2305.198000  417889.416737  6172676.296762  2378.654000
  417981.506227  6172715.252202  2304.527000  417981.522836  6172715.238596  2380.518000
  418073.611936  6172754.194958  2303.997000  418073.629325  6172754.179510  2381.639000
  418165.717504  6172793.135481  2304.056000  418165.733582  6172793.120565  2383.175000
  418257.823072  6172832.076005  2304.269000  418257.839682  6172832.062399  2384.444000
  418349.930092  6172871.018229  2303.800000  418349.945781  6172871.004233  2384.409000
  418442.035271  6172909.959674  2301.917000  418442.048870  6172909.948052  2382.363000
  418534.141370  6172948.901508  2299.060000  418534.151427  6172948.890560  2378.683000
  418626.247859  6172987.842421  2295.798000  418626.255827  6172987.833847  2374.621000
  417467.829002  6172389.510112  2293.103000  417467.817411  6172389.475898  2366.593000
  417559.928901  6172428.446068  2293.564000  417559.926415  6172428.421132  2367.856000
  417652.031563  6172467.383192  2296.392000  417652.036199  6172467.364523  2369.484000
  417744.134368  6172506.322547  2300.798000  417744.145062  6172506.307526  2373.019000
  417836.236783  6172545.262824  2303.284000  417836.251550  6172545.248439  2375.183000
  417928.342882  6172584.204658  2302.785000  417928.358960  6172584.189742  2375.583000
  418020.445971  6172623.148477  2301.091000  418020.465060  6172623.131576  2376.033000
  418112.551150  6172662.089922  2300.049000  418112.572080  6172662.073800  2376.993000
  418204.656328  6172701.031366  2300.059000  418204.677648  6172701.014323  2379.150000
  418296.763206  6172739.971358  2300.690000  418296.784137  6172739.955236  2381.166000
  418388.869695  6172778.912272  2300.705000  418388.888536  6172778.898523  2381.701000
  418480.975795  6172817.854106  2298.961000  418480.991094  6172817.841032  2379.739000
  418573.082283  6172856.795019  2295.675000  418573.094572  6172856.783929  2375.751000
  418665.188383  6172895.736853  2292.179000  418665.198051  6172895.726827  2371.343000
  417506.773741  6172297.407413  2294.698000  417506.755808  6172297.365088  2366.946000
  417598.872330  6172336.343900  2294.332000  417598.865876  6172336.312943  2367.143000
  417690.974461  6172375.279713  2296.845000  417690.977502  6172375.257114  2368.888000
  417783.075813  6172414.217369  2300.591000  417783.087675  6172414.199584  2371.992000
  417875.178228  6172453.157646  2302.144000  417875.194695  6172453.141808  2373.709000
  417967.282627  6172492.100933  2300.751000  417967.303026  6172492.083500  2372.816000
  418059.386106  6172531.043830  2298.260000  418059.409125  6172531.025334  2371.812000
  418151.491674  6172569.984354  2296.532000  418151.515083  6172569.964937  2372.232000
  418243.595541  6172608.926330  2296.228000  418243.621182  6172608.906771  2374.587000
  418335.703341  6172647.866712  2296.814000  418335.726892  6172647.849527  2377.254000
  418427.810751  6172686.808014  2297.271000  418427.831681  6172686.791892  2377.936000
  418519.915929  6172725.749459  2296.146000  418519.934238  6172725.734400  2375.818000
  418612.022949  6172764.691683  2292.152000  418612.037717  6172764.677298  2371.961000
  418704.129438  6172803.632596  2288.740000  418704.140806  6172803.621117  2367.667000
/
 
ZCORN
  2346.810000  2339.329000  2339.329000  2325.661000  2325.661000  2326.390000
  2326.390000  2327.357000  2327.357000  2327.657000  2327.657000  2327.188000
  2327.188000  2327.325000  2327.325000  2328.444000  2328.444000  2330.193000
  2330.193000  2331.070000  2331.070000  2331.458000  2331.458000  2331.100000
  2331.100000  2330.080000  2344.322000  2337.719000  2337.719000  2325.591000
  2325.591000  2325.366000  2325.366000  2326.595000  2326.595000  2327.180000
  2327.180000  2327.830000  2327.830000  2328.277000  2328.277000  2328.778000
  2328.778000  2330.000000  2330.000000  2331.503000  2331.503000  2332.252000
  2332.252000  2331.979000  2331.979000  2330.830000  2344.322000  2337.719000
  2337.719000  2325.591000  2325.591000  2325.366000  2325.366000  2326.595000
  2326.595000  2327.180000  2327.180000  2327.830000  2327.830000  2328.277000
  2328.277000  2328.778000  2328.778000  2330.000000  2330.000000  2331.503000
  2331.503000  2332.252000  2332.252000  2331.979000  2331.979000  2330.830000
  2339.891000  2334.083000  2334.083000  2324.362000  2324.362000  2323.652000
  2323.652000  2325.385000  2325.385000  2326.788000  2326.788000  2328.085000
  2328.085000  2329.032000  2329.032000  2329.446000  2329.446000  2330.021000
  2330.021000  2331.748000  2331.748000  2333.357000  2333.357000  2333.648000
  2333.648000  2332.406000  2339.891000  2334.083000  2334.083000  2324.362000
  2324.362000  2323.652000  2323.652000  2325.385000  2325.385000  2326.788000
  2326.788000  2328.085000  2328.085000  2329.032000  2329.032000  2329.446000
  2329.446000  2330.021000  2330.021000  2331.748000  2331.748000  2333.357000
  2333.357000  2333.648000  2333.648000  2332.406000  2333.219000  2328.074000
  2328.074000  2322.850000  2322.850000  2321.232000  2321.232000  2323.352000
  2323.352000  2325.909000  2325.909000  2328.021000  2328.021000  2329.970000
  2329.970000  2331.484000  2331.484000  2332.227000  2332.227000  2333.281000
  2333.281000  2335.109000  2335.109000  2336.261000  2336.261000  2335.341000
  2333.219000  2328.074000  2328.074000  2324.799000  2322.850000  2321.232000
  2321.232000  2323.352000  2323.352000  2325.909000  2325.909000  2328.021000
  2328.021000  2329.970000  2329.970000  2331.484000  2331.484000  2332.227000
  2332.227000  2333.281000  2333.281000  2335.109000  2335.109000  2336.261000
  2336.261000  2335.341000  2325.722000  2321.998000  2321.998000  2318.551000
  2318.551000  2317.383000  2317.383000  2319.875000  2319.875000  2323.535000
  2323.535000  2326.903000  2326.903000  2330.282000  2330.282000  2333.499000
  2333.499000  2335.638000  2335.638000  2336.488000  2336.488000  2336.956000
  2336.956000  2338.317000  2338.317000  2338.380000  2325.722000  2321.998000
  2321.998000  2318.551000  2318.551000  2317.383000  2317.383000  2319.875000
  2319.875000  2323.535000  2323.535000  2326.903000  2326.903000  2330.282000
  2330.282000  2333.499000  2333.499000  2335.638000  2335.638000  2336.488000
  2336.488000  2336.956000  2336.956000  2338.317000  2338.317000  2338.380000